 Gaussian 03, Revision D.01,
 Gaussian 03:  IA32L-G03RevD.01 13-Oct-2005

 -----------
 # hf sto-3g
 -----------

 ---------
 Annealing
 ---------
 Symbolic Z-matrix:
 Charge =  0 Multiplicity = 1

                         Standard orientation:
 ---------------------------------------------------------------------
 Center     Atomic     Atomic              Coordinates (Angstroms)
 Number     Number      Type              X           Y           Z
 ---------------------------------------------------------------------
    1          1             0       -1.352299    0.110497    0.079212
    2          8             0       -2.286919   -0.105512    0.049976
    3          1             0       -2.668421    0.625465   -0.441102
    4          1             0        3.084934   -0.196164    0.146477
    5          8             0        2.173564   -0.025493   -0.101121
    6          1             0        1.842626    0.508243    0.624575
 ---------------------------------------------------------------------

 SCF Done:  E(RHF) =  -149.927467112     A.U. after    4 cycles

 The electronic state is 1-A.
 Alpha  occ. eigenvalues --  -20.24924 -20.23912  -1.27428  -1.26423  -0.62088
 Alpha  occ. eigenvalues --   -0.61027  -0.46153  -0.45137  -0.39773  -0.38774
 Alpha virt. eigenvalues --    0.59570   0.61314   0.72869   0.74287

 Mulliken atomic charges:
              1
     1  H    0.182796
     2  O   -0.363044
     3  H    0.180229
     4  H    0.183777
     5  O   -0.363099
     6  H    0.179341
 Sum of Mulliken charges=   0.00000

 Dipole moment (field-independent basis, Debye):
    X=     1.6739    Y=     1.8961    Z=     0.7428  Tot=     2.6361
 Quadrupole moment (field-independent basis, Debye-Ang):
   XX=    -9.1847   YY=   -11.1208   ZZ=   -11.2488
   XY=    -2.7007   XZ=     4.8734   YZ=     0.0331

 Normal termination of Gaussian 03 at Mon Jan 19 08:48:34 2015.
