============================== echo of input deck ==============================
 echo

 start anneal

 scratch_dir /home/scratch/nwchem/danian

 memory stack 500 mb heap 100 mb global 1000 mb

 title "Annealing"
 charge            0

 geometry units angstroms print xyz autosym
 Au  -0.21069952022322094       -1.0650636553904420        3.1866764889028611
 Li   0.45788998176061491       -2.5209681139951314        2.7919230402136939
 Xx    -10.000000000000000       -10.000000000000000       -10.000000000000000
 Xx     10.000000000000000       -10.000000000000000       -10.000000000000000
 Xx     10.000000000000000        10.000000000000000       -10.000000000000000
 Xx     10.000000000000000        10.000000000000000        10.000000000000000
 Xx    -10.000000000000000        10.000000000000000       -10.000000000000000
 Xx    -10.000000000000000        10.000000000000000        10.000000000000000
 Xx    -10.000000000000000       -10.000000000000000        10.000000000000000
 Xx     10.000000000000000       -10.000000000000000        10.000000000000000
 end

 basis
 Au library lanl2dz_ecp
 Li library sto-3g
 end

 ecp
 Au library lanl2dz_ecp
 end

 scf
 SINGLET
 end

 task scf energy
================================================================================

 Output coordinates in angstroms (scale by  1.889725989 to convert to a.u.)

  No.       Tag          Charge          X              Y              Z
 ---- ---------------- ---------- -------------- -------------- --------------
    1 Au                  79.0000     0.00000000     0.06036585     0.00000000
    2 Li                   3.0000     0.00000000    -1.58963415    -0.00000000
    3 Xx                   0.0000    17.30716879    -7.01168030     0.00000000
    4 Xx                   0.0000     2.68324680   -15.11579547    10.97561948
    5 Xx                   0.0000    -0.43083952     2.53153130    19.85674127
    6 Xx                   0.0000   -13.71403838     7.31642158     5.69123906
    7 Xx                   0.0000    14.19308247    10.63564647     8.88112179
    8 Xx                   0.0000     0.90988360    15.42053676    -5.28438042
    9 Xx                   0.0000     4.02396992    -2.22679001   -14.16550221
   10 Xx                   0.0000   -10.59995207   -10.33090519    -3.18988273

         Total SCF energy =   -141.797972561082

 Vector    2  Occ=2.000000D+00  E=-2.706563D+00

 Vector    3  Occ=2.000000D+00  E=-2.672397D+00

 Vector    4  Occ=2.000000D+00  E=-2.672397D+00

 Vector    5  Occ=2.000000D+00  E=-2.442971D+00

 Vector    6  Occ=2.000000D+00  E=-4.596465D-01

 Vector    7  Occ=2.000000D+00  E=-4.518088D-01

 Vector    8  Occ=2.000000D+00  E=-4.518088D-01

 Vector    9  Occ=2.000000D+00  E=-4.283724D-01

 Vector   10  Occ=2.000000D+00  E=-4.283724D-01

 Vector   11  Occ=2.000000D+00  E=-2.679942D-01

 Vector   12  Occ=0.000000D+00  E= 2.997344D-02

 Vector   13  Occ=0.000000D+00  E= 4.532953D-02

 Vector   14  Occ=0.000000D+00  E= 4.532953D-02

 Vector   15  Occ=0.000000D+00  E= 1.244680D-01

 Vector   16  Occ=0.000000D+00  E= 1.899795D-01

 Vector   17  Occ=0.000000D+00  E= 1.899795D-01

 Vector   18  Occ=0.000000D+00  E= 2.319301D-01

 Vector   19  Occ=0.000000D+00  E= 2.861723D-01

 Vector   20  Occ=0.000000D+00  E= 2.861723D-01

 Vector   21  Occ=0.000000D+00  E= 5.345059D-01

       Multipole analysis of the density wrt the origin
       ------------------------------------------------

     L   x y z        total         open         nuclear
     -   - - -        -----         ----         -------
     0   0 0 0     -0.000000      0.000000     22.000000

     1   1 0 0     -0.000000      0.000000      0.000000
     1   0 1 0     -1.563408      0.000000     -6.844495
     1   0 0 1      0.000000      0.000000     -0.000000

     2   2 0 0    -21.589905      0.000000      0.000000
     2   1 1 0      0.000000      0.000000      0.000000
     2   1 0 1     -0.000000      0.000000      0.000000
     2   0 2 0    -13.014633      0.000000     27.318809
     2   0 1 1      0.000000      0.000000      0.000000

 Total times  cpu:        1.0s     wall:        2.2s
