============================== echo of input deck ==============================
 echo

 start anneal

 scratch_dir /home/scratch/nwchem/danian

 memory stack 500 mb heap 100 mb global 1000 mb

 title "Annealing"
 charge            0

 geometry units angstroms print xyz autosym
 H    -5.0538081476266483E-002  0.66640535108553767       0.42079125448479759
 O   -0.39459922833101546       0.32684142035696467        1.2498552414979589
 H    0.39661997057146325        8.4056306766909339E-002   1.7357115971177852
 H    -3.5076470905545496        1.1014897290671595       -2.3390530375870253
 O    -2.6182737524829625        1.2735802288418276       -2.0221480742246474
 H    -2.7525569457167967        1.9160598442518921       -1.3219932355021964
 Xx    -3.5000000000000000       -3.5000000000000000       -3.5000000000000000
 Xx     3.5000000000000000       -3.5000000000000000       -3.5000000000000000
 Xx     3.5000000000000000        3.5000000000000000       -3.5000000000000000
 Xx     3.5000000000000000        3.5000000000000000        3.5000000000000000
 Xx    -3.5000000000000000        3.5000000000000000       -3.5000000000000000
 Xx    -3.5000000000000000        3.5000000000000000        3.5000000000000000
 Xx    -3.5000000000000000       -3.5000000000000000        3.5000000000000000
 Xx     3.5000000000000000       -3.5000000000000000        3.5000000000000000
 end

 basis
 O  library sto-3g
 H  library sto-3g
 end

 scf
 SINGLET
 end

 task scf energy
================================================================================

 Output coordinates in angstroms (scale by  1.889725989 to convert to a.u.)

  No.       Tag          Charge          X              Y              Z
 ---- ---------------- ---------- -------------- -------------- --------------
    1 H                    1.0000    -0.68523104     1.49991533     0.24155920
    2 O                    8.0000     0.06308707     2.03481510    -0.03217618
    3 H                    1.0000    -0.29320424     2.92586155    -0.04320136
    4 H                    1.0000     0.44726138    -2.74851547    -0.41108030
    5 O                    8.0000    -0.06043318    -2.03111010    -0.02558762
    6 H                    1.0000     0.50994272    -1.70690142     0.67483289
    7 Xx                   0.0000    -0.56696245    -2.58384377    -5.04419991
    8 Xx                   0.0000    -6.14988090     1.41628832    -3.69143796
    9 Xx                   0.0000    -5.67488678    -0.21706823     3.09874075
   10 Xx                   0.0000    -1.47900759     5.29029863     4.13000606
   11 Xx                   0.0000    -0.09196833    -4.21720031     1.74597881
   12 Xx                   0.0000     4.10391086     1.29016654     2.77724412
   13 Xx                   0.0000     3.62891674     2.92352309    -4.01293460
   14 Xx                   0.0000    -1.95400171     6.92365517    -2.66017265

         Total SCF energy =   -149.927779342813

 Vector    2  Occ=2.000000D+00  E=-2.023889D+01

 Vector    3  Occ=2.000000D+00  E=-1.266041D+00

 Vector    4  Occ=2.000000D+00  E=-1.264175D+00

 Vector    5  Occ=2.000000D+00  E=-6.127834D-01

 Vector    6  Occ=2.000000D+00  E=-6.098427D-01

 Vector    7  Occ=2.000000D+00  E=-4.536519D-01

 Vector    8  Occ=2.000000D+00  E=-4.514403D-01

 Vector    9  Occ=2.000000D+00  E=-3.895372D-01

 Vector   10  Occ=2.000000D+00  E=-3.877563D-01

 Vector   11  Occ=0.000000D+00  E= 6.041906D-01

 Vector   12  Occ=0.000000D+00  E= 6.136450D-01

 Vector   13  Occ=0.000000D+00  E= 7.377052D-01

 Vector   14  Occ=0.000000D+00  E= 7.418870D-01

       Multipole analysis of the density wrt the origin
       ------------------------------------------------

     L   x y z        total         open         nuclear
     -   - - -        -----         ----         -------
     0   0 0 0     -0.000000      0.000000     20.000000

     1   1 0 0     -0.016576      0.000000     -0.000000
     1   0 1 0     -0.026709      0.000000     -0.000000
     1   0 0 1      0.333291      0.000000     -0.000000

     2   2 0 0     -7.848438      0.000000      3.844793
     2   1 1 0     -4.898586      0.000000     -7.058047
     2   1 0 1      0.010367      0.000000      0.012643
     2   0 2 0     -3.904363      0.000000    312.129975
     2   0 1 1      0.273654      0.000000      0.378154

 Total times  cpu:        0.8s     wall:        2.0s
